[Molden Format]
[Molpro variables]
_NUMVAR=  926.0000000000000    
_AVOGAD= 0.6022136736000000E+24
_BOLTZ= 0.1380658000000000E-22
_CLIGHT=  29979245800.00000    
_EV= 0.3674932379085202E-01
_ENULL= 0.8854187817000000E-11
_KJOULE= 0.3808798324128737E-03
_KJOULE/MOL= 0.3808798324128737E-03
_CM= 0.4556335267302901E-05
_CM-1= 0.4556335267302901E-05
_DEB2SI= 0.3335641000000000E-29
_AMU2AU=  1822.888390000000    
_KCAL= 0.1593601117815568E-02
_KCAL/MOL= 0.1593601117815568E-02
_KELVIN= 0.3166811411060229E-05
_JOULE= 0.4359748200000000E-17
_HERTZ= 0.1519829846004524E-15
_HZ= 0.1519829846004524E-15
_JPCAL=  4.184000000000000    
_PLANCK= 0.6626075540000000E-33
_TOA= 0.5291772109200000    
_TOANG= 0.5291772109200000    
_TORAD= 0.1745329251994330E-01
_TOCM=  219474.6306700000    
_TODEBYE=  2.541580000000000    
_TOE= 0.4803242000000000E-09
_TOEV=  27.21138505000000    
_TOHERTZ=  6579683920729000.    
_TOHZ=  6579683920729000.    
_TOK=  315775.0400000000    
_TOKCAL=  627.5096000000000    
_TOKELVIN=  315775.0400000000    
_TOKJ=  2625.500000000000    
_TOKJOULE=  2625.500000000000    
_TOKG= 0.1660565586000000E-26
_ANG=  1.889726124565062    
_ANGSTROM=  1.889726124565062    
_RPAREF=  0.000000000000000    
_RPADISS=  0.000000000000000    
_IGNORE_UNDEF=  2.000000000000000    
_STRICTCHECK=  0.000000000000000    
_SEW_ONEEL=  0.000000000000000    
_CPPDONE=FALSE
_DKROLL_DONE=  0.000000000000000    
_FOCKDONE=TRUE
_GRADONE=FALSE
_HESSDONE=FALSE
_INTDONE=TRUE
_SCFDONE=TRUE
_MODUL_BLOCK=FALSE
_MODUL_CUDA=FALSE
_MODUL_SLATER=FALSE
_MODUL_MRCC=TRUE
_MODUL_NBO6=FALSE
_MODUL_NECI=TRUE
_MODUL_AIMS=TRUE
_MRCC_EXEC=/gpfs/runtime/opt/Molpro/2015_serial/molpros_2015_1_linux_x86_64_i8/bin/dmrcc
_FITC_AO_SAVED=FALSE
_FITC_MO_SAVED=FALSE
_SHARED_FS=TRUE
_LSTYP=SEWARD
_INTYP=INTS
_GEOMTYP=ZMAT
_GRADTYP=ALASKA
_DIRECT=FALSE
_DKHO= -1.000000000000000    
_SYNCM=  0.000000000000000    
_BASIS=6-31G*
_ZCENTRE=MASS
_ZUNIT=ANG
_ZORIENT=  1.000000000000000    
_NELEC=  44.00000000000000    
!SPIN=  0.000000000000000    
_QSDSTEP=  0.000000000000000    
_QSDIRC=  0.000000000000000    
_PROGRAM=HF-SCF
_CPUSTEP=  1.030000000000000    
_SYSSTEP= 0.1000000000000000    
_WALLSTEP=  1.120000000000000    
!DFSCF=  0.000000000000000    
!SCSGRD=  0.000000000000000    
_BASINP=  610.0000000000000    
_CPUTOT=  2.890000000000000    
_CPUSORT= 0.3600000000000001    
_SYSSORT= 0.1500000000000000    
_WALLSORT= 0.5200000004842877    
_DFTEXFAC=  1.000000000000000    
_DMX=-0.1351370569953758    
_DMY=-0.5746333340973520E-03
_DMZ=-0.3271086556543568E-03
_DMX_SCF=-0.1351370569953758    
_DMY_SCF=-0.5746333340973520E-03
_DMZ_SCF=-0.3271086556543568E-03
_EHOMO=-0.2993230511101375    
_ELUMO= 0.1375143504003193    
_EIGS= -11.21966647108789    
_ENERGY= -231.8310110583779    
_ENERGY_METHOD=HF
_ENERGY_BASIS=6-31G*
_GEOMETRY_METHOD=
_GEOMETRY_BASIS=
_ENUC=  219.9372428835272    
_EPS1= -11.21966647108789    
_GRADEXFAC=  9999.000000000000    
_GRADMETHOD=  1.000000000000000    
_NMRMETHOD=  0.000000000000000    
_NMRMAGNET=  0.000000000000000    
!GRID_FREEZE= -1.000000000000000    
_ITERATIONS=  9.000000000000000    
_LASTNELEC=  44.00000000000000    
_LASTSPIN=  0.000000000000000    
_LASTSYM=  1.000000000000000    
_MPP_PROG=  0.000000000000000    
_RS2PHASE=  0.000000000000000    
_NPROC_MPP=  1.000000000000000    
_NPROC_MPPX=  1.000000000000000    
_NPROC_SMP=  1.000000000000000    
_NUMSTEP=  0.000000000000000    
_ORBITAL=  2100.200000000000    
_PI=  3.141592653589793    
_SEIG_MIN= 0.1388580303897826E-02
_SEWPROP=TRUE
_STATUS=  1.000000000000000    
_SYSTOT= 0.3100000000000000    
_VERSION=  2015001.000000000    
_WALLTOT=  3.200000000000000    
_DATE=26-Jan-23
_LASTORB=RHF
_MACHINE= 64 bit serial version
_OUTPUT=/gpfs/home/tnorthey/QMAX8_TSTART4_STRIDE8_TOTAL_ABINITIO_6-31G/molpro/6-31G/chd_reference.xml
_PGROUP=C1
_TIME=12:05:48
_LIBMOL=/gpfs/runtime/opt/Molpro/2015_serial/molpros_2015_1_linux_x86_64_i8/lib/
_VIGRDC=  0.000000000000000    
!VIBCNT=  0.000000000000000    
!RGHFCNT=  0.000000000000000    
!SURFREC=  0.000000000000000    
!ROTREC=  0.000000000000000    
!POLYREC=  0.000000000000000    
!DIPREC=  0.000000000000000    
!DIP4DREC=  0.000000000000000    
!DIPROT=  0.000000000000000    
!DIP4DROT=  0.000000000000000    
!PTREC=  0.000000000000000    
!PT4DREC=  0.000000000000000    
!VSCFREC=  0.000000000000000    
!VCIREC=  0.000000000000000    
!PVCIREC=  0.000000000000000    
!VMP2REC=  0.000000000000000    
!VMCSCFREC=  0.000000000000000    
!VMRCIREC=  0.000000000000000    
!VIBSTATEREC=  0.000000000000000    
!VIBSTATECNT=  0.000000000000000    
!VIBINFO=  0.000000000000000    
!GAREC=  0.000000000000000    
!SCFORB=  21002.00000000000    
!NEWMOL= -1.000000000000000    
!NEWSYM= -1.000000000000000    
_SLFILES=slscratch
_NGSSTO=  9.000000000000000    
_SIN=SIN
_COS=COS
_TAN=TAN
_ACOS=ACOS
_ASIN=ASIN
_ATAN=ATAN
_COSH=COSH
_SINH=SINH
_TANH=TANH
_ABS=ABS
_MOD=MOD
_ERF=ERF
_REFC=REFC
_ERFC=ERFC
_HYPOT=HYPOT
_J0=J0
_J1=J1
_JN=JN
_GAMMA=GAMMA
_LGAMMA=LGAMMA
_Y0=Y0
_Y1=Y1
_YN=YN
_EXP=EXP
_LOG=LOG
_LOG10=LOG10
_SQRT=SQRT
_INT=INT
_NINT=NINT
_MAX=MAX
_MIN=MIN
_COSMO=  0.000000000000000    
_COSMOIT=  0.000000000000000    
_COSMOES=  0.000000000000000    
_COSMOEDS=  0.000000000000000    
_COSMOEC=  0.000000000000000    
_COSMOEDCORR=  0.000000000000000    
_FEPSI=  1.000000000000000    
_SL_IsMM=  0.000000000000000    
_SL_NSYM=  1.000000000000000    
_SL_System_BitSw=  0.000000000000000    
_SL_Unique_atoms=  0.000000000000000    
_SL_GRAD=  0.000000000000000    
_SL_MAXUPD_Hess=  5.000000000000000    
_SL_N_PRINT_COD=  5.000000000000000    
_SL_PRINT_CODES=  0.000000000000000    
_SL_BasType=  0.000000000000000    
_SL_Energy_Pred=  0.000000000000000    
_SL_New_Coords=  0.000000000000000    
_SL_Total_Nuclea=  0.000000000000000    
_SL_Highest_Mltp=  0.000000000000000    
_SL_Ref_Geom=  0.000000000000000    
_SL_Symmetry_ope=  1.000000000000000    
_SL_agrad=  0.000000000000000    
_SL_GrdMax=  0.000000000000000    
_SL_GrdNorm=  0.000000000000000    
_SL_GrdRMS=  0.000000000000000    
_SL_Hss_Q=  0.000000000000000    
_SL_Hss_X=  0.000000000000000    
_SL_BMxOld=  0.000000000000000    
_SL_KtB=  0.000000000000000    
_SL_TROld=  0.000000000000000    
_SL_No_of_Intern=  0.000000000000000    
_SL_Hess=  0.000000000000000    
_SL_K=  0.000000000000000    
!LATTICE= -1.000000000000000    
!NEWLATTICE=  0.000000000000000    
!LATGRAD_VAR=FALSE
!SEW_LATTICE=  1.000000000000000    
!LOCAL=  0.000000000000000    
!SAVEDOM= -1.000000000000000    
!RESTDOM= -1.000000000000000    
!SAVEDOM_HF= -1.000000000000000    
!RESTDOM_HF= -1.000000000000000    
!HESSREC=  0.000000000000000    
!FREQREC=  0.000000000000000    
!NMODREC=  0.000000000000000    
!GTASKS=  0.000000000000000    
!HTASKS=  0.000000000000000    
!SAVEDOM_EOM= -1.000000000000000    
!RESTDOM_EOM= -1.000000000000000    
!GRADSTATE= -1.000000000000000    
!THRCHG= 0.1000000000000000    
!DEBUG= -1.000000000000000    
!CFIT_CPHF=  0.000000000000000    
!RDOMAUX_CPHF=  3.000000000000000    
!THRAO_CPHF= 0.1000000000000000E-09
!THRMO_CPHF= 0.1000000000000000E-08
!THROV_CPHF= 0.1000000000000000E-11
!THRSW_CPHF= 0.1000000000000000E-09
!THRPROD_CPHF= 0.1000000000000000E-08
!THRAOPR_CPHF= 0.1000000000000000E-11
!CFIT_SCFGRD=  0.000000000000000    
!RDOMAUX_SCFGRD=  5.000000000000000    
!THRAO_SCFGRD= 0.1000000000000000E-09
!THRMO_SCFGRD= 0.1000000000000000E-08
!THROV_SCFGRD= 0.1000000000000000E-11
!THRSW_SCFGRD= 0.1000000000000000E-09
!THRPROD_SCFGRD= 0.1000000000000000E-08
!THRAOPR_SCFGRD= 0.1000000000000000E-11
!LOCFIT_SCF=  0.000000000000000    
!LOCFIT_MP2= -1.000000000000000    
_RIDOM=  0.000000000000000    
!CC2_METHOD=  0.000000000000000    
_BASIS2006=FALSE
_SVDDEL= -1.000000000000000    
_SVDDELA= -1.000000000000000    
_SVDDELP= -1.000000000000000    
_SVDDELF= -1.000000000000000    
_SVDDELS= -1.000000000000000    
_SVDDEL_ABS= -1.000000000000000    
_SVDDELA_ABS= -1.000000000000000    
_SVDDELP_ABS= -1.000000000000000    
_SVDDELF_ABS= -1.000000000000000    
_SVDDELS_ABS= -1.000000000000000    
_MAXBASIS=  0.000000000000000    
!OPT_CONICAL=  0.000000000000000    
!CLEARSP_JGRID=  0.000000000000000    
_GRDHYBR=  0.000000000000000    
_STATEGRAD=  1.000000000000000    
_4EXT_NDISKS=  1.000000000000000    
!ZMP=  0.000000000000000    
_MAXIT_ZMP=  500.0000000000000    
_MAXDIS_ZMP=  100.0000000000000    
_ACCU_ZMP=  14.00000000000000    
_SHIFTA_ZMP= -100.0000000000000    
!EMBEDFLAG=  1.000000000000000    
!EMBED=FALSE
!EMBED_F12=FALSE
!EMBEDNUC=  0.000000000000000    
_EMBEDENERGY=  0.000000000000000    
_KSPACETIME=  0.000000000000000    
_RSPACETIME=  0.000000000000000    
!EMBED_DFC=FALSE
!NUM_VOIDS=  0.000000000000000    
_IBODY=  0.000000000000000    
_EMBE_TOTAL=  0.000000000000000    
_EMBE_HF=  0.000000000000000    
_EMBE_CORR=  0.000000000000000    
!EMBED_PROJ=FALSE
!EMBED_TRUNC=  0.000000000000000    
!EMB_PROJ_ZMU=  1000000.000000000    
!CORRECTION=  0.000000000000000    
!CORRECTION_HF=  0.000000000000000    
!EMBED_ENERGY=  0.000000000000000    
!EMBED_NAXC=FALSE
!EMBED_AORB=  0.000000000000000    
!EMBED_NACORR=  0.000000000000000    
!EMBED_MP2=FALSE
!EMBED_TRUNC_PERTURBATION=FALSE
!EMBED_FROZEN=  0.000000000000000    
_CHANGE_BASIS=FALSE
_RESTORE_BASIS=FALSE
_FIX_EMBED_GUESS=FALSE
!EDFT=  0.000000000000000    
_IFASTLATGRAD=  0.000000000000000    
_SINDEX=  0.000000000000000    
_AVDOM_OSV=  0.000000000000000    
_AVDOM_PNO=  0.000000000000000    
_AVDOM_PAO=  0.000000000000000    
_AVDOM_LMO=  0.000000000000000    
_CC2OSV_FLAG=  0.000000000000000    
_TMADC2_FLAG=FALSE
_PROPADC2_FLAG=FALSE
_LEN_VirQ=  0.000000000000000    
_GRDCC2LR_FLAG=FALSE
_GRDADC2_FLAG=FALSE
GX1= -1.219848512516582    
GY1=-0.2398265041516788    
GZ1= 0.7231749567915257    
GX2= 0.8748811575256281E-01
GY2= 0.6269646765871596E-01
GZ2=  1.417118409546560    
GX3=  1.220158652906828    
GY3= 0.1065305219012627    
GZ3= 0.7343157225491482    
GX4=  1.225280762130615    
GY4=-0.1063766077490823    
GZ4=-0.7256906063173699    
GX5= 0.9744847713558254E-01
GY5=-0.6272627003402603E-01
GZ5= -1.416478752392057    
GX6= -1.214625664095390    
GY6= 0.2398359648928982    
GZ6=-0.7317838086529601    
GX7= -2.048262768873955    
GY7= 0.2130463697001886    
GZ7=  1.258913267669432    
GX8= -1.383488765434755    
GY8= -1.318108572648116    
GZ8= 0.7541386182458572    
GX9= 0.8624811537245954E-01
GY9= 0.1913416747770117    
GZ9=  2.486275183299191    
GX10=  2.158054356471814    
GY10= 0.2836870862680355    
GZ10=  1.231568995534385    
GX11=  2.166602985081338    
GY11=-0.2843974435687548    
GZ11= -1.216232693375921    
GX12= 0.1036811683519932    
GY12=-0.1928497803476481    
GZ12= -2.485437754035734    
GX13= -2.039456749266260    
GY13=-0.2125407135137007    
GZ13= -1.273440818264488    
GX14= -1.377819772648761    
GY14=  1.318229677927368    
GZ14=-0.7636010117787708    
[Atoms] Angs
C     1    6        -1.2198485125       -0.2398265042        0.7231749568
C     2    6         0.0874881158        0.0626964677        1.4171184095
C     3    6         1.2201586529        0.1065305219        0.7343157225
C     4    6         1.2252807621       -0.1063766077       -0.7256906063
C     5    6         0.0974484771       -0.0627262700       -1.4164787524
C     6    6        -1.2146256641        0.2398359649       -0.7317838087
H     7    1        -2.0482627689        0.2130463697        1.2589132677
H     8    1        -1.3834887654       -1.3181085726        0.7541386182
H     9    1         0.0862481154        0.1913416748        2.4862751833
H    10    1         2.1580543565        0.2836870863        1.2315689955
H    11    1         2.1666029851       -0.2843974436       -1.2162326934
H    12    1         0.1036811684       -0.1928497803       -2.4854377540
H    13    1        -2.0394567493       -0.2125407135       -1.2734408183
H    14    1        -1.3778197726        1.3182296779       -0.7636010118
[GTO]
   1 0
 s    6  1.00
  0.3047524900D+04  0.1834737091D-02
  0.4573695200D+03  0.1403732293D-01
  0.1039486800D+03  0.6884262165D-01
  0.2921015500D+02  0.2321844388D+00
  0.9286663000D+01  0.4679413476D+00
  0.3163927000D+01  0.3623119882D+00
 s    3  1.00
  0.7868272300D+01 -0.1193324245D+00
  0.1881288500D+01 -0.1608541561D+00
  0.5442492600D+00  0.1143456443D+01
 s    1  1.00
  0.1687144800D+00  0.1000000000D+01
 p    3  1.00
  0.7868272300D+01  0.6899906693D-01
  0.1881288500D+01  0.3164239597D+00
  0.5442492600D+00  0.7443082892D+00
 p    1  1.00
  0.1687144800D+00  0.1000000000D+01
 d    1  1.00
  0.8000000000D+00  0.1000000000D+01
  
   2 0
 s    6  1.00
  0.3047524900D+04  0.1834737091D-02
  0.4573695200D+03  0.1403732293D-01
  0.1039486800D+03  0.6884262165D-01
  0.2921015500D+02  0.2321844388D+00
  0.9286663000D+01  0.4679413476D+00
  0.3163927000D+01  0.3623119882D+00
 s    3  1.00
  0.7868272300D+01 -0.1193324245D+00
  0.1881288500D+01 -0.1608541561D+00
  0.5442492600D+00  0.1143456443D+01
 s    1  1.00
  0.1687144800D+00  0.1000000000D+01
 p    3  1.00
  0.7868272300D+01  0.6899906693D-01
  0.1881288500D+01  0.3164239597D+00
  0.5442492600D+00  0.7443082892D+00
 p    1  1.00
  0.1687144800D+00  0.1000000000D+01
 d    1  1.00
  0.8000000000D+00  0.1000000000D+01
  
   3 0
 s    6  1.00
  0.3047524900D+04  0.1834737091D-02
  0.4573695200D+03  0.1403732293D-01
  0.1039486800D+03  0.6884262165D-01
  0.2921015500D+02  0.2321844388D+00
  0.9286663000D+01  0.4679413476D+00
  0.3163927000D+01  0.3623119882D+00
 s    3  1.00
  0.7868272300D+01 -0.1193324245D+00
  0.1881288500D+01 -0.1608541561D+00
  0.5442492600D+00  0.1143456443D+01
 s    1  1.00
  0.1687144800D+00  0.1000000000D+01
 p    3  1.00
  0.7868272300D+01  0.6899906693D-01
  0.1881288500D+01  0.3164239597D+00
  0.5442492600D+00  0.7443082892D+00
 p    1  1.00
  0.1687144800D+00  0.1000000000D+01
 d    1  1.00
  0.8000000000D+00  0.1000000000D+01
  
   4 0
 s    6  1.00
  0.3047524900D+04  0.1834737091D-02
  0.4573695200D+03  0.1403732293D-01
  0.1039486800D+03  0.6884262165D-01
  0.2921015500D+02  0.2321844388D+00
  0.9286663000D+01  0.4679413476D+00
  0.3163927000D+01  0.3623119882D+00
 s    3  1.00
  0.7868272300D+01 -0.1193324245D+00
  0.1881288500D+01 -0.1608541561D+00
  0.5442492600D+00  0.1143456443D+01
 s    1  1.00
  0.1687144800D+00  0.1000000000D+01
 p    3  1.00
  0.7868272300D+01  0.6899906693D-01
  0.1881288500D+01  0.3164239597D+00
  0.5442492600D+00  0.7443082892D+00
 p    1  1.00
  0.1687144800D+00  0.1000000000D+01
 d    1  1.00
  0.8000000000D+00  0.1000000000D+01
  
   5 0
 s    6  1.00
  0.3047524900D+04  0.1834737091D-02
  0.4573695200D+03  0.1403732293D-01
  0.1039486800D+03  0.6884262165D-01
  0.2921015500D+02  0.2321844388D+00
  0.9286663000D+01  0.4679413476D+00
  0.3163927000D+01  0.3623119882D+00
 s    3  1.00
  0.7868272300D+01 -0.1193324245D+00
  0.1881288500D+01 -0.1608541561D+00
  0.5442492600D+00  0.1143456443D+01
 s    1  1.00
  0.1687144800D+00  0.1000000000D+01
 p    3  1.00
  0.7868272300D+01  0.6899906693D-01
  0.1881288500D+01  0.3164239597D+00
  0.5442492600D+00  0.7443082892D+00
 p    1  1.00
  0.1687144800D+00  0.1000000000D+01
 d    1  1.00
  0.8000000000D+00  0.1000000000D+01
  
   6 0
 s    6  1.00
  0.3047524900D+04  0.1834737091D-02
  0.4573695200D+03  0.1403732293D-01
  0.1039486800D+03  0.6884262165D-01
  0.2921015500D+02  0.2321844388D+00
  0.9286663000D+01  0.4679413476D+00
  0.3163927000D+01  0.3623119882D+00
 s    3  1.00
  0.7868272300D+01 -0.1193324245D+00
  0.1881288500D+01 -0.1608541561D+00
  0.5442492600D+00  0.1143456443D+01
 s    1  1.00
  0.1687144800D+00  0.1000000000D+01
 p    3  1.00
  0.7868272300D+01  0.6899906693D-01
  0.1881288500D+01  0.3164239597D+00
  0.5442492600D+00  0.7443082892D+00
 p    1  1.00
  0.1687144800D+00  0.1000000000D+01
 d    1  1.00
  0.8000000000D+00  0.1000000000D+01
  
   7 0
 s    3  1.00
  0.1873113700D+02  0.3349460400D-01
  0.2825394400D+01  0.2347269500D+00
  0.6401216900D+00  0.8137573301D+00
 s    1  1.00
  0.1612777600D+00  0.1000000000D+01
  
   8 0
 s    3  1.00
  0.1873113700D+02  0.3349460400D-01
  0.2825394400D+01  0.2347269500D+00
  0.6401216900D+00  0.8137573301D+00
 s    1  1.00
  0.1612777600D+00  0.1000000000D+01
  
   9 0
 s    3  1.00
  0.1873113700D+02  0.3349460400D-01
  0.2825394400D+01  0.2347269500D+00
  0.6401216900D+00  0.8137573301D+00
 s    1  1.00
  0.1612777600D+00  0.1000000000D+01
  
  10 0
 s    3  1.00
  0.1873113700D+02  0.3349460400D-01
  0.2825394400D+01  0.2347269500D+00
  0.6401216900D+00  0.8137573301D+00
 s    1  1.00
  0.1612777600D+00  0.1000000000D+01
  
  11 0
 s    3  1.00
  0.1873113700D+02  0.3349460400D-01
  0.2825394400D+01  0.2347269500D+00
  0.6401216900D+00  0.8137573301D+00
 s    1  1.00
  0.1612777600D+00  0.1000000000D+01
  
  12 0
 s    3  1.00
  0.1873113700D+02  0.3349460400D-01
  0.2825394400D+01  0.2347269500D+00
  0.6401216900D+00  0.8137573301D+00
 s    1  1.00
  0.1612777600D+00  0.1000000000D+01
  
  13 0
 s    3  1.00
  0.1873113700D+02  0.3349460400D-01
  0.2825394400D+01  0.2347269500D+00
  0.6401216900D+00  0.8137573301D+00
 s    1  1.00
  0.1612777600D+00  0.1000000000D+01
  
  14 0
 s    3  1.00
  0.1873113700D+02  0.3349460400D-01
  0.2825394400D+01  0.2347269500D+00
  0.6401216900D+00  0.8137573301D+00
 s    1  1.00
  0.1612777600D+00  0.1000000000D+01


[MO]
 Sym=      1.1
 Ene=     -11.2197
 Spin= Alpha
 Occup=    2.000000
1 0.38803204328768
2 0.009925729245658
3 -0.004822360320560
4 -0.000061750669291
5 0.000011904743190
6 0.000025927992517
7 0.000771760556227
8 -0.000042301330343
9 -0.000619614187825
10 -0.000079364149125
11 0.000218726163667
12 -0.000139362014542
13 -0.000116284010701
14 -0.000241913888462
15 0.000036003890366
16 0.59945589577648
17 0.014579316979770
18 -0.007018020857905
19 -0.000016979595327
20 -0.000022045826518
21 -0.000069101660045
22 -0.001009252757419
23 0.000101626475867
24 0.000564676400248
25 0.000106195986083
26 -0.000248980820237
27 0.000142784834155
28 -0.000002438426795
29 -0.000247631203229
30 -0.000018558455029
31 0.18279797312815
32 0.003663319045798
33 0.001359141696674
34 0.000291136105195
35 0.000022654333388
36 -0.000044425066235
37 -0.001479200265118
38 -0.000187973350781
39 0.000375643884478
40 0.000035534362012
41 0.000015821490746
42 -0.000051355852759
43 0.000011590565139
44 0.000086459970779
45 -0.000014690281708
46 0.16681161971669
47 0.003309245773100
48 0.001318696809823
49 0.000267760941236
50 -0.000020829379223
51 0.000019506633596
52 -0.001361238571629
53 0.000179976099133
54 -0.000289297180431
55 0.000047050570900
56 0.000009807691871
57 -0.000056858262771
58 -0.000009683068407
59 -0.000082174261062
60 -0.000016832217660
61 0.53540552166219
62 0.012991776381558
63 -0.006216709770757
64 -0.000009204449085
65 0.000017173629626
66 0.000048553497519
67 -0.000968187738139
68 -0.000096608870225
69 -0.000514183048248
70 0.000090666555665
71 -0.000227206305938
72 0.000136539750273
73 0.000006192142942
74 0.000225286368595
75 -0.000023645823522
76 0.36621217148711
77 0.009326038419199
78 -0.004378073776577
79 -0.000059970952192
80 -0.000021333177778
81 -0.000037988968208
82 0.000719025119108
83 0.000066392506763
84 0.000760574347375
85 -0.000060949742732
86 0.000202846283071
87 -0.000141896540339
88 0.000105070464204
89 0.000223872974171
90 0.000043861583475
91 -0.000038273616847
92 0.001668945536379
93 -0.000268212571195
94 0.001659676614895
95 -0.000321824664868
96 0.001355472216104
97 -0.000138918071495
98 0.000795666991295
99 -0.000130872533439
100 0.000756864104347
101 -0.000293469962334
102 0.001217030770970
103 -0.000036421736422
104 0.001607691664257
105 -0.000271928810664
106 0.001535875842542
 Sym=      2.1
 Ene=     -11.2195
 Spin= Alpha
 Occup=    2.000000
1 0.20295564094286
2 0.005619110809371
3 -0.004335148228775
4 -0.000011906782671
5 -0.000097893433554
6 -0.000119955296869
7 0.000433858685545
8 0.000249016224740
9 0.001432070589601
10 -0.000209646859577
11 0.000147550453538
12 0.000062096406039
13 -0.000105218088881
14 -0.000177911865822
15 -0.000074210504228
16 0.61930371344433
17 0.015361859524308
18 -0.007726089950444
19 -0.000084255265531
20 -0.000047326477686
21 -0.000206037144634
22 -0.000321800372166
23 0.000039194031419
24 0.000553363428153
25 0.000122718715763
26 -0.000205283048083
27 0.000082564332319
28 0.000036027296011
29 -0.000209638785156
30 0.000057991608912
31 0.15836152972673
32 0.003545669854175
33 0.000234240046745
34 0.000218216922743
35 0.000018011629432
36 -0.000272209962443
37 -0.001085896690926
38 -0.000069303077661
39 0.000966982100730
40 -0.000107122381455
41 0.000055923386884
42 0.000051198994570
43 0.000017139325087
44 0.000029438752963
45 0.000022794344797
46 -0.17512110359801
47 -0.003879501960654
48 -0.000353535906607
49 -0.000243841829783
50 0.000020195349314
51 -0.000276327130930
52 0.001212501036701
53 -0.000086501471266
54 0.001007910061368
55 0.000102218623586
56 -0.000055850224623
57 -0.000046368398963
58 0.000018525951354
59 0.000037949568502
60 -0.000021350932994
61 -0.67150263477024
62 -0.016623863360178
63 0.008292946104584
64 0.000086272476333
65 -0.000048931162686
66 -0.000209474620155
67 0.000430310609038
68 0.000043639444774
69 0.000589198002959
70 -0.000126458923076
71 0.000226313921682
72 -0.000099854998606
73 0.000035029968471
74 -0.000233636124156
75 -0.000055252967730
76 -0.24631110214101
77 -0.006732098501303
78 0.004900559348562
79 0.000016548812171
80 -0.000096166755213
81 -0.000118054925793
82 -0.000499739167485
83 0.000247528905477
84 0.001352319019109
85 0.000217082839599
86 -0.000168611696581
87 -0.000048471143018
88 -0.000116239429763
89 -0.000197603232991
90 0.000067589984611
91 -0.000015467923330
92 0.000536910484086
93 0.000054951150990
94 0.001180344229905
95 -0.000272916940918
96 0.001325708738979
97 -0.000075811125285
98 0.000362429581117
99 0.000088821997066
100 -0.000438481975776
101 0.000302655061226
102 -0.001448831269699
103 0.000019409831662
104 -0.000712491874472
105 -0.000029793433837
106 -0.001357843042340
 Sym=      3.1
 Ene=     -11.2190
 Spin= Alpha
 Occup=    2.000000
1 0.59974260748727
2 0.015966886508929
3 -0.010952479385785
4 0.000231239075027
5 0.000009065124496
6 -0.000111077945533
7 -0.001642810986563
8 0.000324423535568
9 -0.000867767741651
10 0.000160902775134
11 0.000038218852152
12 -0.000199121627286
13 0.000029088044380
14 0.000100913827700
15 0.000181524665267
16 -0.34838617644505
17 -0.008959761068302
18 0.007610391077951
19 0.000119275460187
20 0.000006902580561
21 0.000132399408309
22 -0.001669303711332
23 -0.000423093052382
24 -0.001699304874212
25 -0.000290645763020
26 0.000204560543072
27 0.000086085219948
28 -0.000089653920038
29 -0.000068433510175
30 -0.000088869471838
31 -0.14438740815133
32 -0.003390606859211
33 0.000051027837034
34 0.000029669513391
35 -0.000007115652579
36 0.000060247286612
37 0.000468707040851
38 0.000078695689949
39 0.000124030275333
40 -0.000018696008758
41 -0.000100843464805
42 0.000119539473563
43 0.000009854968487
44 -0.000072423755140
45 0.000030768239118
46 -0.14541158771345
47 -0.003415534113116
48 0.000075275514530
49 0.000028628261867
50 0.000008039507475
51 -0.000062381493548
52 0.000465084786137
53 -0.000077801477862
54 -0.000098893112472
55 -0.000019001447412
56 -0.000101076395134
57 0.000120077842547
58 -0.000009480768923
59 0.000071659275396
60 0.000030228185428
61 -0.35179337939695
62 -0.009043186407328
63 0.007595261667399
64 0.000121053006500
65 -0.000006995543068
66 -0.000133825541453
67 -0.001656280763195
68 0.000417783258596
69 0.001670727188111
70 -0.000289553324986
71 0.000203705223324
72 0.000085848101662
73 0.000088916216009
74 0.000061204659861
75 -0.000089181536734
76 0.58788604854467
77 0.015646295848130
78 -0.010653984871200
79 0.000228812193290
80 -0.000009043773809
81 0.000112283721740
82 -0.001636567942788
83 -0.000336658132255
84 0.000891949194803
85 0.000165213400185
86 0.000038395940550
87 -0.000203609340734
88 -0.000031708994427
89 -0.000098895774115
90 0.000183404760859
91 -0.000025584547665
92 0.001430848988185
93 0.000137644862272
94 0.001944145557130
95 0.000058062167113
96 -0.000415090535562
97 0.000074750170696
98 -0.000293261489391
99 0.000075947319733
100 -0.000292212789852
101 0.000061046665030
102 -0.000424155099173
103 -0.000029112030599
104 0.001393004515638
105 0.000133190574681
106 0.001903821777891
 Sym=      4.1
 Ene=     -11.2185
 Spin= Alpha
 Occup=    2.000000
1 0.66315320535248
2 0.017846273505237
3 -0.017268832402858
4 0.000132018371473
5 0.000069175667409
6 0.000054526437811
7 -0.001138418560779
8 -0.000963754540328
9 0.001486762978172
10 -0.000054256931352
11 -0.000140536807180
12 0.000194793738533
13 -0.000010057867229
14 0.000066304790583
15 -0.000097732253229
16 -0.20929053444073
17 -0.005246837522590
18 0.006336908901280
19 0.000022107563069
20 0.000024745151997
21 -0.000017776533464
22 -0.001470546553227
23 -0.000381890047663
24 -0.001377785548373
25 -0.000209196671652
26 0.000200140364478
27 0.000009056307174
28 -0.000116841099615
29 -0.000146921582993
30 0.000009334207959
31 -0.077121548570993
32 -0.001687008206872
33 -0.001097186815920
34 -0.000049755310781
35 0.000050978267861
36 0.000044416794992
37 0.000948875474933
38 0.000080154450045
39 0.000653893934280
40 0.000034076726028
41 0.000002462637476
42 -0.000036539363503
43 0.000030340142464
44 0.000017198194543
45 0.000013004913570
46 0.079876730304709
47 0.001752237722416
48 0.001089419991377
49 0.000048890323947
50 0.000050831741531
51 0.000045715405583
52 -0.000958908731666
53 0.000081329486432
54 0.000648716447059
55 -0.000033676672277
56 -0.000001178445605
57 0.000034855117881
58 0.000030535152828
59 0.000015731574060
60 -0.000013305622743
61 0.21441732610661
62 0.005377649732386
63 -0.006442364857384
64 -0.000024107455282
65 0.000024747742320
66 -0.000016107349453
67 0.001504082185339
68 -0.000387749931961
69 -0.001390338878260
70 0.000215072638073
71 -0.000203057369891
72 -0.000012015268183
73 -0.000118039048435
74 -0.000146094444664
75 -0.000008789412133
76 -0.67142584603300
77 -0.018066857611215
78 0.017419549383628
79 -0.000135942825170
80 0.000069133612825
81 0.000051895018958
82 0.001151283546111
83 -0.000957416801385
84 0.001483544458675
85 0.000050940549056
86 0.000140225470620
87 -0.000191166019676
88 -0.000010317988076
89 0.000069927947006
90 0.000095012668618
91 0.000244242304919
92 0.002178353858523
93 0.000295865039248
94 0.001895056574748
95 -0.000008154759649
96 -0.000409236158936
97 -0.000015843337549
98 -0.000376705105801
99 0.000014345910778
100 0.000381893573167
101 0.000007211778146
102 0.000415289998881
103 -0.000243659962587
104 -0.002196893460236
105 -0.000298123427391
106 -0.001922214117705
 Sym=      5.1
 Ene=     -11.2166
 Spin= Alpha
 Occup=    2.000000
1 0.029776256241734
2 0.000757888927930
3 -0.001479754501101
4 -0.000068940991016
5 0.000025560198190
6 -0.000023290133829
7 -0.000455486646558
8 -0.000218966572210
9 -0.000154237087075
10 0.000080843068650
11 -0.000083643536185
12 0.000002800467535
13 0.000054932324810
14 0.000080403565784
15 0.000040909715022
16 -0.22531260306933
17 -0.006428207171120
18 0.007327093494760
19 -0.000279111159672
20 0.000033496517360
21 0.000311726531055
22 0.001064447135072
23 -0.000203453211350
24 -0.001920051853137
25 -0.000224713433717
26 0.000232697529944
27 -0.000007984096227
28 -0.000050483978544
29 0.000165421893679
30 -0.000012461839475
31 0.66752920940098
32 0.016612498228844
33 -0.009154858238880
34 -0.000261084930748
35 -0.000022272503705
36 0.000030485641655
37 0.001574420542438
38 0.000192732103537
39 -0.000673568782007
40 0.000408100653640
41 -0.000217046786320
42 -0.000191053867321
43 0.000088823907955
44 -0.000215433356518
45 -0.000041515382573
46 0.66576311534866
47 0.016567463843806
48 -0.009119828811658
49 -0.000260583965086
50 0.000022098783653
51 -0.000033200563092
52 0.001564933300805
53 -0.000190836475318
54 0.000690634482238
55 0.000405258572490
56 -0.000215799875312
57 -0.000189458697178
58 -0.000088634289876
59 0.000219877675193
60 -0.000042254286743
61 -0.22603010715628
62 -0.006444490171691
63 0.007324699310633
64 -0.000276279081550
65 -0.000033726112449
66 -0.000313647659242
67 0.001047869231802
68 0.000203716991010
69 0.001923674845815
70 -0.000222547994934
71 0.000232533050392
72 -0.000009985055458
73 0.000050495179825
74 -0.000167038311439
75 -0.000012494784169
76 0.029991964101233
77 0.000762957735540
78 -0.001480979053749
79 -0.000068881019628
80 -0.000025704901804
81 0.000022576807482
82 -0.000455881940884
83 0.000218839775817
84 0.000152802884221
85 0.000081968069930
86 -0.000083895922609
87 0.000001927852678
88 -0.000055358970845
89 -0.000080031822823
90 0.000040466501195
91 0.000046803593886
92 0.000157366902893
93 0.000031350346743
94 -0.000061326641153
95 0.000059439597228
96 -0.000130075953035
97 -0.000345842716899
98 0.001368539719820
99 -0.000345270529382
100 0.001365765003993
101 0.000059781273467
102 -0.000132085458545
103 0.000046817863105
104 0.000158145069971
105 0.000031260528611
106 -0.000061045399423
 Sym=      6.1
 Ene=     -11.2159
 Spin= Alpha
 Occup=    2.000000
1 -0.021781233452935
2 -0.000796181738997
3 0.003058542599265
4 0.000009977432874
5 -0.000015692770864
6 -0.000014928452693
7 0.000898433884962
8 0.000482512158280
9 -0.000267987518668
10 -0.000082971349199
11 0.000065708824456
12 0.000017262524743
13 -0.000008192906947
14 -0.000033970030110
15 -0.000041328042316
16 0.18297163270990
17 0.005213182574971
18 -0.008381785693948
19 0.000201878094512
20 0.000012675049062
21 -0.000165655152312
22 -0.000917666936401
23 0.000147634797177
24 0.002455644032659
25 0.000249394729756
26 -0.000292775553467
27 0.000043380823711
28 0.000071802274770
29 -0.000138863535116
30 0.000038198803731
31 -0.67925656919986
32 -0.017678981865047
33 0.016240831670067
34 0.000267516277385
35 0.000051133307570
36 0.000249619329175
37 -0.002931391919958
38 -0.000568114833793
39 -0.002344779285011
40 -0.000108869102448
41 0.000568826486083
42 -0.000459957383635
43 -0.000031564185360