[Molden Format]
[Molpro variables]
_NUMVAR=  927.0000000000000    
_AVOGAD= 0.6022136736000000E+24
_BOLTZ= 0.1380658000000000E-22
_CLIGHT=  29979245800.00000    
_EV= 0.3674932379085202E-01
_ENULL= 0.8854187817000000E-11
_KJOULE= 0.3808798324128737E-03
_KJOULE/MOL= 0.3808798324128737E-03
_CM= 0.4556335267302901E-05
_CM-1= 0.4556335267302901E-05
_DEB2SI= 0.3335641000000000E-29
_AMU2AU=  1822.888390000000    
_KCAL= 0.1593601117815568E-02
_KCAL/MOL= 0.1593601117815568E-02
_KELVIN= 0.3166811411060229E-05
_JOULE= 0.4359748200000000E-17
_HERTZ= 0.1519829846004524E-15
_HZ= 0.1519829846004524E-15
_JPCAL=  4.184000000000000    
_PLANCK= 0.6626075540000000E-33
_TOA= 0.5291772109200000    
_TOANG= 0.5291772109200000    
_TORAD= 0.1745329251994330E-01
_TOCM=  219474.6306700000    
_TODEBYE=  2.541580000000000    
_TOE= 0.4803242000000000E-09
_TOEV=  27.21138505000000    
_TOHERTZ=  6579683920729000.    
_TOHZ=  6579683920729000.    
_TOK=  315775.0400000000    
_TOKCAL=  627.5096000000000    
_TOKELVIN=  315775.0400000000    
_TOKJ=  2625.500000000000    
_TOKJOULE=  2625.500000000000    
_TOKG= 0.1660565586000000E-26
_ANG=  1.889726124565062    
_ANGSTROM=  1.889726124565062    
_RPAREF=  0.000000000000000    
_RPADISS=  0.000000000000000    
_IGNORE_UNDEF=  2.000000000000000    
_STRICTCHECK=  0.000000000000000    
_SEW_ONEEL=  0.000000000000000    
_CPPDONE=FALSE
_DKROLL_DONE=  0.000000000000000    
_FOCKDONE=TRUE
_GRADONE=FALSE
_HESSDONE=TRUE
_INTDONE=TRUE
_SCFDONE=TRUE
_MODUL_BLOCK=FALSE
_MODUL_CUDA=FALSE
_MODUL_SLATER=FALSE
_MODUL_MRCC=TRUE
_MODUL_NBO6=FALSE
_MODUL_NECI=TRUE
_MODUL_AIMS=TRUE
_MRCC_EXEC=/gpfs/runtime/opt/Molpro/2015_serial/molpros_2015_1_linux_x86_64_i8/bin/dmrcc
_FITC_AO_SAVED=FALSE
_FITC_MO_SAVED=FALSE
_SHARED_FS=TRUE
_LSTYP=SEWARD
_INTYP=INTS
_GEOMTYP=ZMAT
_GRADTYP=ALASKA
_DIRECT=FALSE
_DKHO= -1.000000000000000    
_SYNCM=  0.000000000000000    
_BASIS=6-31G*
_ZUNIT=ANG
_ZORIENT=  0.000000000000000    
_NELEC=  44.00000000000000    
!SPIN=  0.000000000000000    
_OPTCONV= 0.2658130297327597E-02
_QSDSTEP=  0.000000000000000    
_QSDIRC=  0.000000000000000    
_PROGRAM=FREQ
_CPUSTEP=  0.000000000000000    
_SYSSTEP=  0.000000000000000    
_WALLSTEP=  0.000000000000000    
!DFSCF=  0.000000000000000    
!SCSGRD=  0.000000000000000    
_BASINP=  610.0000000000000    
_CPUTOT=  733.8200000000001    
_CPUSORT= 0.3799999999999955    
_SYSSORT= 0.1499999999999986    
_WALLSORT= 0.5400000000372529    
_DFTEXFAC=  1.000000000000000    
_DMX=-0.1771865153124358E-02
_DMY=-0.1356733937089389    
_DMZ= 0.2933455150425424E-02
_DMX_SCF=-0.1771865153124358E-02
_DMY_SCF=-0.1356733937089389    
_DMZ_SCF= 0.2933455150425424E-02
_FREQUENCIES= 0.2863632786571631E-04
_EHOMO=-0.2989781502772418    
_ELUMO= 0.1369858661308432    
_EIGS= -11.21985480741734    
_ENERGY= -231.8310226640946    
_ENERGY_METHOD=HF
_ENERGY_BASIS=6-31G*
_GEOMETRY_METHOD=
_GEOMETRY_BASIS=
_ENUC=  219.8528137817461    
_EPS1= -11.21966008550235    
_FREQSTEP=  85.00000000000000    
_GRADENERG= -231.8310050746406    
_GRADEXFAC=  9999.000000000000    
_GRADMETHOD=  1.000000000000000    
_NMRMETHOD=  0.000000000000000    
_NMRMAGNET=  0.000000000000000    
_VIRIAL=-0.7674598898646638E-02
!GRID_FREEZE= -1.000000000000000    
_ITERATIONS=  2.000000000000000    
_LASTNELEC=  44.00000000000000    
_LASTSPIN=  0.000000000000000    
_LASTSYM=  1.000000000000000    
_MPP_PROG=  0.000000000000000    
_RS2PHASE=  0.000000000000000    
_NPROC_MPP=  1.000000000000000    
_NPROC_MPPX=  1.000000000000000    
_NPROC_SMP=  1.000000000000000    
_NUMSTEP=  0.000000000000000    
_OPTCONVMX= 0.1878611733177715E-02
_OPTCONVRMS= 0.7104152044287790E-03
_OPTGRAD= 0.2878416292833575E-03
_OPTGRADMX= 0.1481197147342105E-03
_OPTGRADRMS= 0.7995600813426598E-05
_OPTSTEP=  3.000000000000000    
_ORBITAL=  2100.200000000000    
_PI=  3.141592653589793    
_SEIG_MIN= 0.1393026343749193E-02
_SEWPROP=TRUE
_STATUS=  1.000000000000000    
_SYSTOT=  30.75000000000000    
_VERSION=  2015001.000000000    
_WALLTOT=  767.9000000000000    
_ZPE= 0.1316133311227452    
_DATE=09-Aug-23
_LASTORB=RHF
_MACHINE= 64 bit serial version
_OUTPUT=/oscar/home/tnorthey/molpro/chd/chd_opt_freq.xml
_PGROUP=C1
_TIME=08:41:20
_LIBMOL=/gpfs/runtime/opt/Molpro/2015_serial/molpros_2015_1_linux_x86_64_i8/lib/
_VIGRDC=  0.000000000000000    
!VIBCNT=  0.000000000000000    
!RGHFCNT=  0.000000000000000    
!SURFREC=  0.000000000000000    
!ROTREC=  0.000000000000000    
!POLYREC=  0.000000000000000    
!DIPREC=  0.000000000000000    
!DIP4DREC=  0.000000000000000    
!DIPROT=  0.000000000000000    
!DIP4DROT=  0.000000000000000    
!PTREC=  0.000000000000000    
!PT4DREC=  0.000000000000000    
!VSCFREC=  0.000000000000000    
!VCIREC=  0.000000000000000    
!PVCIREC=  0.000000000000000    
!VMP2REC=  0.000000000000000    
!VMCSCFREC=  0.000000000000000    
!VMRCIREC=  0.000000000000000    
!VIBSTATEREC=  0.000000000000000    
!VIBSTATECNT=  0.000000000000000    
!VIBINFO=  0.000000000000000    
!GAREC=  0.000000000000000    
!SCFORB=  21002.00000000000    
!NEWMOL=  0.000000000000000    
!NEWSYM=  0.000000000000000    
_SLFILES=slscratch
_NGSSTO=  9.000000000000000    
_SIN=SIN
_COS=COS
_TAN=TAN
_ACOS=ACOS
_ASIN=ASIN
_ATAN=ATAN
_COSH=COSH
_SINH=SINH
_TANH=TANH
_ABS=ABS
_MOD=MOD
_ERF=ERF
_REFC=REFC
_ERFC=ERFC
_HYPOT=HYPOT
_J0=J0
_J1=J1
_JN=JN
_GAMMA=GAMMA
_LGAMMA=LGAMMA
_Y0=Y0
_Y1=Y1
_YN=YN
_EXP=EXP
_LOG=LOG
_LOG10=LOG10
_SQRT=SQRT
_INT=INT
_NINT=NINT
_MAX=MAX
_MIN=MIN
_COSMO=  0.000000000000000    
_COSMOIT=  0.000000000000000    
_COSMOES=  0.000000000000000    
_COSMOEDS=  0.000000000000000    
_COSMOEC=  0.000000000000000    
_COSMOEDCORR=  0.000000000000000    
_FEPSI=  1.000000000000000    
_SL_IsMM=  0.000000000000000    
_SL_NSYM=  1.000000000000000    
_SL_System_BitSw=  0.000000000000000    
_SL_Unique_atoms=  0.000000000000000    
_SL_GRAD=  0.000000000000000    
_SL_MAXUPD_Hess=  5.000000000000000    
_SL_N_PRINT_COD=  5.000000000000000    
_SL_PRINT_CODES=  0.000000000000000    
_SL_BasType=  0.000000000000000    
_SL_Energy_Pred=  0.000000000000000    
_SL_New_Coords=  0.000000000000000    
_SL_Total_Nuclea=  0.000000000000000    
_SL_Highest_Mltp=  0.000000000000000    
_SL_Ref_Geom=  0.000000000000000    
_SL_Symmetry_ope=  1.000000000000000    
_SL_agrad=  0.000000000000000    
_SL_GrdMax=  0.000000000000000    
_SL_GrdNorm=  0.000000000000000    
_SL_GrdRMS=  0.000000000000000    
_SL_Hss_Q=  0.000000000000000    
_SL_Hss_X=  0.000000000000000    
_SL_BMxOld=  0.000000000000000    
_SL_KtB=  0.000000000000000    
_SL_TROld=  0.000000000000000    
_SL_No_of_Intern=  0.000000000000000    
_SL_Hess=  0.000000000000000    
_SL_K=  0.000000000000000    
!LATTICE= -1.000000000000000    
!NEWLATTICE=  0.000000000000000    
!LATGRAD_VAR=FALSE
!SEW_LATTICE=  1.000000000000000    
!LOCAL=  0.000000000000000    
!SAVEDOM= -1.000000000000000    
!RESTDOM= -1.000000000000000    
!SAVEDOM_HF= -1.000000000000000    
!RESTDOM_HF= -1.000000000000000    
!HESSREC=  5300.200000000000    
!FREQREC=  5400.200000000000    
!NMODREC=  5450.200000000000    
!GTASKS=  0.000000000000000    
!HTASKS=  5500.200000000000    
!SAVEDOM_EOM= -1.000000000000000    
!RESTDOM_EOM= -1.000000000000000    
!GRADSTATE= -1.000000000000000    
!THRCHG= 0.1000000000000000    
!DEBUG= -1.000000000000000    
!CFIT_CPHF=  0.000000000000000    
!RDOMAUX_CPHF=  5.000000000000000    
!THRAO_CPHF= 0.9999999999999999E-11
!THRMO_CPHF= 0.9999999999999999E-11
!THROV_CPHF= 0.1000000000000000E-11
!THRSW_CPHF= 0.1000000000000000E-09
!THRPROD_CPHF= 0.9999999999999999E-11
!THRAOPR_CPHF= 0.1000000000000000E-11
!CFIT_SCFGRD=  0.000000000000000    
!RDOMAUX_SCFGRD=  7.000000000000000    
!THRAO_SCFGRD= 0.9999999999999999E-11
!THRMO_SCFGRD= 0.9999999999999999E-11
!THROV_SCFGRD= 0.1000000000000000E-11
!THRSW_SCFGRD= 0.1000000000000000E-09
!THRPROD_SCFGRD= 0.9999999999999999E-11
!THRAOPR_SCFGRD= 0.1000000000000000E-11
!LOCFIT_SCF=  0.000000000000000    
!LOCFIT_MP2= -1.000000000000000    
_RIDOM=  0.000000000000000    
!CC2_METHOD=  0.000000000000000    
_BASIS2006=FALSE
_SVDDEL= -1.000000000000000    
_SVDDELA= -1.000000000000000    
_SVDDELP= -1.000000000000000    
_SVDDELF= -1.000000000000000    
_SVDDELS= -1.000000000000000    
_SVDDEL_ABS= -1.000000000000000    
_SVDDELA_ABS= -1.000000000000000    
_SVDDELP_ABS= -1.000000000000000    
_SVDDELF_ABS= -1.000000000000000    
_SVDDELS_ABS= -1.000000000000000    
_MAXBASIS=  0.000000000000000    
!OPT_CONICAL=  0.000000000000000    
!CLEARSP_JGRID=  0.000000000000000    
_GRDHYBR=  0.000000000000000    
_STATEGRAD=  1.000000000000000    
_4EXT_NDISKS=  1.000000000000000    
!ZMP=  0.000000000000000    
_MAXIT_ZMP=  500.0000000000000    
_MAXDIS_ZMP=  100.0000000000000    
_ACCU_ZMP=  14.00000000000000    
_SHIFTA_ZMP= -100.0000000000000    
!EMBEDFLAG=  1.000000000000000    
!EMBED=FALSE
!EMBED_F12=FALSE
!EMBEDNUC=  0.000000000000000    
_EMBEDENERGY=  0.000000000000000    
_KSPACETIME=  0.000000000000000    
_RSPACETIME=  0.000000000000000    
!EMBED_DFC=FALSE
!NUM_VOIDS=  0.000000000000000    
_IBODY=  0.000000000000000    
_EMBE_TOTAL=  0.000000000000000    
_EMBE_HF=  0.000000000000000    
_EMBE_CORR=  0.000000000000000    
!EMBED_PROJ=FALSE
!EMBED_TRUNC=  0.000000000000000    
!EMB_PROJ_ZMU=  1000000.000000000    
!CORRECTION=  0.000000000000000    
!CORRECTION_HF=  0.000000000000000    
!EMBED_ENERGY=  0.000000000000000    
!EMBED_NAXC=FALSE
!EMBED_AORB=  0.000000000000000    
!EMBED_NACORR=  0.000000000000000    
!EMBED_MP2=FALSE
!EMBED_TRUNC_PERTURBATION=FALSE
!EMBED_FROZEN=  0.000000000000000    
_CHANGE_BASIS=FALSE
_RESTORE_BASIS=FALSE
_FIX_EMBED_GUESS=FALSE
!EDFT=  0.000000000000000    
_IFASTLATGRAD=  0.000000000000000    
_SINDEX=  0.000000000000000    
_AVDOM_OSV=  0.000000000000000    
_AVDOM_PNO=  0.000000000000000    
_AVDOM_PAO=  0.000000000000000    
_AVDOM_LMO=  0.000000000000000    
_CC2OSV_FLAG=  0.000000000000000    
_TMADC2_FLAG=FALSE
_PROPADC2_FLAG=FALSE
_LEN_VirQ=  0.000000000000000    
_GRDCC2LR_FLAG=FALSE
_GRDADC2_FLAG=FALSE
GEOMTYP=XYZ
GX1= 0.7297557971600150    
GY1= -1.238987587608627    
GZ1=-0.1154439960955200    
GX2=  1.406829566709316    
GY2= 0.7033418415659792E-01
GZ2= 0.2167627499751206    
GX3= 0.7338616428151330    
GY3=  1.210362751191803    
GZ3= 0.1703560610296969    
GX4=-0.7007447923145447    
GY4=  1.221942971960633    
GZ4=-0.1719539858328137    
GX5= -1.404794501640310    
GY5= 0.9990980132747108E-01
GZ5=-0.1646583695038996    
GX6=-0.7637253502501682    
GY6= -1.210243358875400    
GZ6= 0.2298875211570243    
GX7=  1.212529570910339    
GY7= -2.060476034631934    
GZ7= 0.4044301828689415    
GX8= 0.8560688073000676    
GY8= -1.432963963040760    
GZ8= -1.181136719334392    
GX9=  2.459205439899712    
GY9= 0.6157163386078151E-01
GZ9= 0.4426165462514579    
GX10=  1.222055231114743    
GY10=  2.148708391342975    
GZ10= 0.3680471863152180    
GX11= -1.162963950089221    
GY11=  2.162827495511461    
GZ11=-0.4148387348091503    
GX12= -2.457016293104566    
GY12= 0.1092241084890987    
GZ12=-0.3911987200553810    
GX13= -1.269251047067856    
GY13= -2.041945362618998    
GZ13=-0.2506263730864937    
GX14=-0.8945601524426612    
GY14= -1.349790178765103    
GZ14=  1.303518758920192    
[Atoms] Angs
C     1    6         0.7297557972       -1.2389875876       -0.1154439961
C     2    6         1.4068295667        0.0703341842        0.2167627500
C     3    6         0.7338616428        1.2103627512        0.1703560610
C     4    6        -0.7007447923        1.2219429720       -0.1719539858
C     5    6        -1.4047945016        0.0999098013       -0.1646583695
C     6    6        -0.7637253503       -1.2102433589        0.2298875212
H     7    1         1.2125295709       -2.0604760346        0.4044301829
H     8    1         0.8560688073       -1.4329639630       -1.1811367193
H     9    1         2.4592054399        0.0615716339        0.4426165463
H    10    1         1.2220552311        2.1487083913        0.3680471863
H    11    1        -1.1629639501        2.1628274955       -0.4148387348
H    12    1        -2.4570162931        0.1092241085       -0.3911987201
H    13    1        -1.2692510471       -2.0419453626       -0.2506263731
H    14    1        -0.8945601524       -1.3497901788        1.3035187589
[GTO]
   1 0
 s    6  1.00
  0.3047524900D+04  0.1834737091D-02
  0.4573695200D+03  0.1403732293D-01
  0.1039486800D+03  0.6884262165D-01
  0.2921015500D+02  0.2321844388D+00
  0.9286663000D+01  0.4679413476D+00
  0.3163927000D+01  0.3623119882D+00
 s    3  1.00
  0.7868272300D+01 -0.1193324245D+00
  0.1881288500D+01 -0.1608541561D+00
  0.5442492600D+00  0.1143456443D+01
 s    1  1.00
  0.1687144800D+00  0.1000000000D+01
 p    3  1.00
  0.7868272300D+01  0.6899906693D-01
  0.1881288500D+01  0.3164239597D+00
  0.5442492600D+00  0.7443082892D+00
 p    1  1.00
  0.1687144800D+00  0.1000000000D+01
 d    1  1.00
  0.8000000000D+00  0.1000000000D+01
  
   2 0
 s    6  1.00
  0.3047524900D+04  0.1834737091D-02
  0.4573695200D+03  0.1403732293D-01
  0.1039486800D+03  0.6884262165D-01
  0.2921015500D+02  0.2321844388D+00
  0.9286663000D+01  0.4679413476D+00
  0.3163927000D+01  0.3623119882D+00
 s    3  1.00
  0.7868272300D+01 -0.1193324245D+00
  0.1881288500D+01 -0.1608541561D+00
  0.5442492600D+00  0.1143456443D+01
 s    1  1.00
  0.1687144800D+00  0.1000000000D+01
 p    3  1.00
  0.7868272300D+01  0.6899906693D-01
  0.1881288500D+01  0.3164239597D+00
  0.5442492600D+00  0.7443082892D+00
 p    1  1.00
  0.1687144800D+00  0.1000000000D+01
 d    1  1.00
  0.8000000000D+00  0.1000000000D+01
  
   3 0
 s    6  1.00
  0.3047524900D+04  0.1834737091D-02
  0.4573695200D+03  0.1403732293D-01
  0.1039486800D+03  0.6884262165D-01
  0.2921015500D+02  0.2321844388D+00
  0.9286663000D+01  0.4679413476D+00
  0.3163927000D+01  0.3623119882D+00
 s    3  1.00
  0.7868272300D+01 -0.1193324245D+00
  0.1881288500D+01 -0.1608541561D+00
  0.5442492600D+00  0.1143456443D+01
 s    1  1.00
  0.1687144800D+00  0.1000000000D+01
 p    3  1.00
  0.7868272300D+01  0.6899906693D-01
  0.1881288500D+01  0.3164239597D+00
  0.5442492600D+00  0.7443082892D+00
 p    1  1.00
  0.1687144800D+00  0.1000000000D+01
 d    1  1.00
  0.8000000000D+00  0.1000000000D+01
  
   4 0
 s    6  1.00
  0.3047524900D+04  0.1834737091D-02
  0.4573695200D+03  0.1403732293D-01
  0.1039486800D+03  0.6884262165D-01
  0.2921015500D+02  0.2321844388D+00
  0.9286663000D+01  0.4679413476D+00
  0.3163927000D+01  0.3623119882D+00
 s    3  1.00
  0.7868272300D+01 -0.1193324245D+00
  0.1881288500D+01 -0.1608541561D+00
  0.5442492600D+00  0.1143456443D+01
 s    1  1.00
  0.1687144800D+00  0.1000000000D+01
 p    3  1.00
  0.7868272300D+01  0.6899906693D-01
  0.1881288500D+01  0.3164239597D+00
  0.5442492600D+00  0.7443082892D+00
 p    1  1.00
  0.1687144800D+00  0.1000000000D+01
 d    1  1.00
  0.8000000000D+00  0.1000000000D+01
  
   5 0
 s    6  1.00
  0.3047524900D+04  0.1834737091D-02
  0.4573695200D+03  0.1403732293D-01
  0.1039486800D+03  0.6884262165D-01
  0.2921015500D+02  0.2321844388D+00
  0.9286663000D+01  0.4679413476D+00
  0.3163927000D+01  0.3623119882D+00
 s    3  1.00
  0.7868272300D+01 -0.1193324245D+00
  0.1881288500D+01 -0.1608541561D+00
  0.5442492600D+00  0.1143456443D+01
 s    1  1.00
  0.1687144800D+00  0.1000000000D+01
 p    3  1.00
  0.7868272300D+01  0.6899906693D-01
  0.1881288500D+01  0.3164239597D+00
  0.5442492600D+00  0.7443082892D+00
 p    1  1.00
  0.1687144800D+00  0.1000000000D+01
 d    1  1.00
  0.8000000000D+00  0.1000000000D+01
  
   6 0
 s    6  1.00
  0.3047524900D+04  0.1834737091D-02
  0.4573695200D+03  0.1403732293D-01
  0.1039486800D+03  0.6884262165D-01
  0.2921015500D+02  0.2321844388D+00
  0.9286663000D+01  0.4679413476D+00
  0.3163927000D+01  0.3623119882D+00
 s    3  1.00
  0.7868272300D+01 -0.1193324245D+00
  0.1881288500D+01 -0.1608541561D+00
  0.5442492600D+00  0.1143456443D+01
 s    1  1.00
  0.1687144800D+00  0.1000000000D+01
 p    3  1.00
  0.7868272300D+01  0.6899906693D-01
  0.1881288500D+01  0.3164239597D+00
  0.5442492600D+00  0.7443082892D+00
 p    1  1.00
  0.1687144800D+00  0.1000000000D+01
 d    1  1.00
  0.8000000000D+00  0.1000000000D+01
  
   7 0
 s    3  1.00
  0.1873113700D+02  0.3349460400D-01
  0.2825394400D+01  0.2347269500D+00
  0.6401216900D+00  0.8137573301D+00
 s    1  1.00
  0.1612777600D+00  0.1000000000D+01
  
   8 0
 s    3  1.00
  0.1873113700D+02  0.3349460400D-01
  0.2825394400D+01  0.2347269500D+00
  0.6401216900D+00  0.8137573301D+00
 s    1  1.00
  0.1612777600D+00  0.1000000000D+01
  
   9 0
 s    3  1.00
  0.1873113700D+02  0.3349460400D-01
  0.2825394400D+01  0.2347269500D+00
  0.6401216900D+00  0.8137573301D+00
 s    1  1.00
  0.1612777600D+00  0.1000000000D+01
  
  10 0
 s    3  1.00
  0.1873113700D+02  0.3349460400D-01
  0.2825394400D+01  0.2347269500D+00
  0.6401216900D+00  0.8137573301D+00
 s    1  1.00
  0.1612777600D+00  0.1000000000D+01
  
  11 0
 s    3  1.00
  0.1873113700D+02  0.3349460400D-01
  0.2825394400D+01  0.2347269500D+00
  0.6401216900D+00  0.8137573301D+00
 s    1  1.00
  0.1612777600D+00  0.1000000000D+01
  
  12 0
 s    3  1.00
  0.1873113700D+02  0.3349460400D-01
  0.2825394400D+01  0.2347269500D+00
  0.6401216900D+00  0.8137573301D+00
 s    1  1.00
  0.1612777600D+00  0.1000000000D+01
  
  13 0
 s    3  1.00
  0.1873113700D+02  0.3349460400D-01
  0.2825394400D+01  0.2347269500D+00
  0.6401216900D+00  0.8137573301D+00
 s    1  1.00
  0.1612777600D+00  0.1000000000D+01
  
  14 0
 s    3  1.00
  0.1873113700D+02  0.3349460400D-01
  0.2825394400D+01  0.2347269500D+00
  0.6401216900D+00  0.8137573301D+00
 s    1  1.00
  0.1612777600D+00  0.1000000000D+01


[MO]
 Sym=      1.1
 Ene=     -11.2199
 Spin= Alpha
 Occup=    2.000000
1 0.28007430396490
2 0.007049613240992
3 -0.002855791492603
4 0.000044501740881
5 -0.000099262019251
6 0.000019531490218
7 -0.000479803643734
8 0.001025975270916
9 -0.000174166616526
10 -0.000110020746988
11 -0.000101077110881
12 0.000211097857869
13 -0.000239458124025
14 -0.000020419237638
15 -0.000129531025508
16 0.63413174329158
17 0.015492207700208
18 -0.007992628505736
19 -0.000082224645134
20 -0.000035159132242
21 -0.000028455004294
22 0.000799152371100
23 -0.000714063625454
24 0.000261842280826
25 0.000119585180331
26 0.000150730925021
27 -0.000270316105352
28 -0.000226641177284
29 0.000042439452792
30 -0.000021949234654
31 0.19875161327840
32 0.004049397555990
33 0.001334669664993
34 -0.000045953133147
35 0.000279197554712
36 0.000012162437362
37 0.000328773990424
38 -0.001519140246685
39 -0.000130124087451
40 -0.000064280313392
41 0.000037033274120
42 0.000027247039273
43 0.000097411380385
44 -0.000031986682549
45 0.000018037598542
46 0.19048885504488
47 0.003866237662889
48 0.001311835110483
49 0.000039865946298
50 0.000265499329048
51 -0.000025629930485
52 -0.000323796329947
53 -0.001441528138551
54 0.000200455964226
55 -0.000071128770442
56 0.000045537808027
57 0.000025590962415
58 -0.000093669082163
59 -0.000028858011220
60 -0.000017063511502
61 0.60161384016079
62 0.014686210911135
63 -0.007574059837798
64 0.000071502897777
65 -0.000031699624645
66 0.000026659352447
67 -0.000785443692715
68 -0.000690326456542
69 -0.000221707413400
70 0.000126167263444
71 0.000134165205776
72 -0.000260332469220
73 0.000218400969686
74 0.000027982768787
75 -0.000000228954417
76 0.27129738620745
77 0.006807406714478
78 -0.002690084860903
79 -0.000052693960068
80 -0.000097638575370
81 -0.000020347214330
82 0.000568532568648
83 0.000991192351720
84 0.000147324009903
85 -0.000101461422805
86 -0.000090780510943
87 0.000192241933748
88 0.000229747910713
89 -0.000024083504962
90 0.000140275503701
91 -0.000033301617124
92 0.001400221516899
93 -0.000289153264706
94 0.001287551538440
95 -0.000322169220011
96 0.001374492216930
97 -0.000146831171418
98 0.000822695093240
99 -0.000142862791477
100 0.000801896673220
101 -0.000308017958770
102 0.001304582131046
103 -0.000031581971823
104 0.001376585473719
105 -0.000290072605519
106 0.001231708499351
 Sym=      2.1
 Ene=     -11.2198
 Spin= Alpha
 Occup=    2.000000
1 0.17140754467653
2 0.004752023029321
3 -0.003325203112450
4 -0.000113489978777
5 -0.000022512722427
6 -0.000112218399730
7 0.001271529540339
8 0.000524726370244
9 0.000421911283798
10 0.000051063526490
11 -0.000207763631259
12 0.000156700104770
13 -0.000181613594303
14 -0.000073169256404
15 -0.000112125376915
16 0.64428804280979
17 0.015972317493393
18 -0.008262777281601
19 -0.000199614321712
20 -0.000086077696881
21 -0.000065143557629
22 0.000642471222826
23 -0.000254874026806
24 0.000130416265436
25 0.000072289968358
26 0.000139588735261
27 -0.000211878703619
28 -0.000205314946527
29 0.000093085062044
30 0.000013219270789
31 0.16587805191548
32 0.003696893146612
33 0.000362391089164
34 -0.000273015940298
35 0.000231171006588
36 -0.000015537181371
37 0.000910282223032
38 -0.001194729724006
39 0.000032636626789
40 0.000051111673944
41 -0.000109916957732
42 0.000058805283787
43 0.000029598577550
44 0.000020237960338
45 0.000022633365825
46 -0.17556905053995
47 -0.003894563661016
48 -0.000424222603707
49 -0.000281493293592
50 -0.000237444841952
51 -0.000003378418501
52 0.000959752233140
53 0.001241201789527
54 -0.000033464810200
55 -0.000046231852649
56 0.000107660462453
57 -0.000061428609804
58 0.000038179205292
59 -0.000019888062220
60 0.000014782534572
61 -0.67428552081682
62 -0.016703950744620
63 0.008634699228719
64 -0.000200714812633
65 0.000089955215032
66 -0.000070550502645
67 0.000686137598376
68 0.000279296761919
69 0.000128446426688
70 -0.000088623022346
71 -0.000133988305759
72 0.000222611328104
73 -0.000222410178987
74 -0.000084058652176
75 0.000034434970371
76 -0.18589065751060
77 -0.005117163971885
78 0.003477724638913
79 -0.000110605251888
80 0.000024811319658
81 -0.000112326367324
82 0.001229110743980
83 -0.000586059067006
84 0.000440674296109
85 -0.000054153287953
86 0.000210483574572
87 -0.000156330286619
88 -0.000181114893779
89 0.000079201500633
90 -0.000140916927713
91 -0.000033532345089
92 0.000440112992879
93 0.000027236146894
94 0.001104173218382
95 -0.000280532049247
96 0.001380306126302
97 -0.000077650949372
98 0.000405795574634
99 0.000084837498385
100 -0.000446337515850
101 0.000296054967131
102 -0.001446020925001
103 0.000035149893291
104 -0.000510692949363
105 -0.000013064247037
106 -0.001169129381085
 Sym=      3.1
 Ene=     -11.2191
 Spin= Alpha
 Occup=    2.000000
1 0.64909253452575
2 0.017208100680754
3 -0.011440394975846
4 -0.000102747709831
5 0.000216621581009
6 -0.000003277709523
7 -0.001020003097642
8 -0.001464071000781
9 0.000262030199384
10 -0.000247553859191
11 0.000148284066418
12 0.000099269792773
13 0.000069029997329
14 0.000150797790879
15 0.000013923136851
16 -0.25168571086493
17 -0.006597665305984
18 0.006382626289181
19 0.000120177936742
20 0.000117411573017
21 0.000011680152934
22 -0.001540587100474
23 -0.001800201372190
24 -0.000494657823702
25 0.000119357882225
26 -0.000270054531147
27 0.000150696648922
28 -0.000104736219712
29 -0.000093974904604
30 -0.000084831613557
31 -0.11763586506145
32 -0.002867675272957
33 0.000325427535916
34 0.000055975778066
35 0.000074832401820
36 -0.000000678777594
37 0.000167035491914
38 0.000220311399391
39 0.000057305352973
40 0.000102487969426
41 -0.000012032455948
42 -0.000090455513478
43 -0.000058300263696
44 0.000050038419249
45 0.000002760206521
46 -0.11762405579682
47 -0.002867807215745
48 0.000331964305413
49 -0.000054213710262
50 0.000076149340687
51 -0.000002659332834
52 -0.000155728157246
53 0.000218963894714
54 -0.000066947390648
55 0.000105268373018
56 -0.000015212126853
57 -0.000090056246165
58 0.000056959109919
59 0.000047054725961
60 -0.000008120982889
61 -0.25176433468502
62 -0.006599300925692
63 0.006365366631922
64 -0.000117278321098
65 0.000120035450110
66 -0.000017306058507
67 0.001484841537859
68 -0.001808431363073
69 0.000578151469097
70 0.000123762922584
71 -0.000265784320625
72 0.000142021398041
73 0.000086827226612
74 -0.000096009183647
75 0.000109612060326
76 0.64555264740304
77 0.017112572427964
78 -0.011349874001682
79 0.000108739684664
80 0.000213019978722
81 -0.000006796311102
82 0.000989055005310
83 -0.001497628029766
84 -0.000194979800017
85 -0.000251440060181
86 0.000150263492649
87 0.000101176567532
88 -0.000049074160018
89 0.000153550470885
90 -0.000021058743994
91 -0.000032116141728
92 0.001668243652521
93 0.000088109382234
94 0.002167341812309
95 0.000007369521952
96 -0.000206663119484
97 0.000054187708503
98 -0.000169507558902
99 0.000054430362346
100 -0.000168484942352
101 0.000007872501573
102 -0.000207517330695
103 -0.000033277451770
104 0.001656876315830
105 0.000086651012370
106 0.002156211524539
 Sym=      4.1
 Ene=     -11.2185
 Spin= Alpha
 Occup=    2.000000
1 0.67949599090573
2 0.018289984336331
3 -0.017561978071048
4 0.000043228764813
5 0.000131061999678
6 0.000062340671200
7 0.001641519096339
8 -0.001126912304573
9 -0.000764620102544
10 0.000208933795448
11 -0.000068522290948
12 -0.000140411504500
13 0.000050365675404
14 -0.000066730907654
15 -0.000013239083733
16 -0.16595196057236
17 -0.004170165014936
18 0.005755500644386
19 -0.000033914768374
20 0.000018438421068
21 0.000018247917475
22 -0.001296232269472
23 -0.001500830427933
24 -0.000458913699638
25 0.000012402158888
26 -0.000202955761789
27 0.000190553602901
28 -0.000154013577496
29 -0.000002714026314
30 -0.000117490742240
31 -0.068796553420648
32 -0.001514232293260
33 -0.000990617955169
34 0.000022019413179
35 -0.000031225665267
36 0.000055372797258
37 0.000701862175123
38 0.000839462898901
39 0.000112295944551
40 -0.000035542726689
41 0.000027878296953
42 0.000007664429736
43 0.000017382545705
44 0.000009685748063
45 0.000032380039675
46 0.069523227279379
47 0.001532002769939
48 0.000987123087914
49 0.000023202421429
50 0.000032746200057
51 0.000053838638908
52 0.000679332380487
53 -0.000852624240335
54 0.000152923402111
55 0.000035767503566
56 -0.000025759074233
57 -0.000010008429333
58 0.000014689861253
59 -0.000009794997405
60 0.000033656434607
61 0.16713215726254
62 0.004200867713441
63 -0.005784456859765
64 -0.000033873706656
65 -0.000017241772086
66 0.000019115233331
67 -0.001261581732982
68 0.001521247022531
69 -0.000533328511464
70 -0.000020156183408
71 0.000200785636465
72 -0.000180629453056
73 -0.000147332153808
74 0.000006829128535
75 -0.000139380111011
76 -0.68260924505701
77 -0.018372568679362
78 0.017616489749614
79 0.000039083665304
80 -0.000130157155723
81 0.000068572676151
82 0.001666779295527
83 0.001050970304965
84 -0.000815234458002
85 -0.000205037953646
86 0.000064140599258
87 0.000140897354388
88 0.000062397047773
89 0.000062965317377
90 -0.000010873435398
91 0.000242518031285
92 0.002224982491444
93 0.000297644089651
94 0.001988805385971
95 -0.000028210202156
96 -0.000318763447682
97 -0.000019275042260
98 -0.000348480424194
99 0.000018910291547
100 0.000349355364257
101 0.000028215501896
102 0.000319589521000
103 -0.000242334078396
104 -0.002232872722623
105 -0.000298064495524
106 -0.001999258454064
 Sym=      5.1
 Ene=     -11.2169
 Spin= Alpha
 Occup=    2.000000
1 0.033634378812987
2 0.000858853419052
3 -0.001540807255313
4 -0.000026605273745
5 -0.000067429412322
6 0.000025118252632
7 -0.000144373583983
8 -0.000464449128798
9 -0.000219741008094
10 -0.000003991481826
11 0.000082066330025
12 -0.000078074848200
13 0.000077104211714
14 0.000048718394610
15 0.000056543142377
16 -0.22539597842385
17 -0.006427373357565
18 0.007320409835354
19 0.000304253349667
20 -0.000278917625732
21 0.000068221480398
22 -0.001882393487284
23 0.001057668546981
24 -0.000402639363227
25 -0.000000127342098
26 -0.000230605444603
27 0.000230732786701
28 0.000166406598713
29 -0.000042515394202
30 -0.000021920123724
31 0.66719719925386
32 0.016596433292140
33 -0.009126837593918
34 0.000029209452258
35 -0.000258768493634
36 -0.000012586541570
37 -0.000668173004734
38 0.001572835442140
39 0.000089613347537
40 -0.000188257298592
41 0.000413983348741
42 -0.000225726050149
43 -0.000215169396128
44 -0.000031122277423
45 0.000051072796276
46 0.66592658723327
47 0.016563649471056
48 -0.009098322792711
49 -0.000036800499394
50 -0.000256583805209
51 0.000024624298328
52 0.000715212374569
53 0.001542988998324
54 -0.000161898617001
55 -0.000178435542612
56 0.000397590323541
57 -0.000219154780930
58 0.000231684545046
59 -0.000043959163275
60 -0.000084679349285
61 -0.22537865873639
62 -0.006425709139627
63 0.007309831785043
64 -0.000311623506910
65 -0.000273013073438
66 -0.000055187339651
67 0.001907010190927
68 0.001021643448155
69 0.000352764662992
70 -0.000008176454682
71 -0.000219256132999
72 0.000227432587682
73 -0.000175051369151
74 -0.000033529152696
75 0.000047804446300
76 0.033676948589024
77 0.000859554848935
78 -0.001537730950394
79 0.000024694996393
80 -0.000069188879248
81 -0.000021888821552
82 0.000132548965377
83 -0.000456043305723
84 0.000241118292594
85 -0.000007480432730
86 0.000080478628572
87 -0.000072998195842
88 -0.000072000864920
89 0.000050514763072
90 -0.000066551005946
91 0.000046464994231
92 0.000168180949136
93 0.000031889764137
94 -0.000048320253488
95 0.000058552958839
96 -0.000129030467027
97 -0.000345736805750
98 0.001370572824262
99 -0.000345400106862
100 0.001368813702128
101 0.000058599395376
102 -0.000129390623503
103 0.000046381166994
104 0.000168224653476
105 0.000031767223139
106 -0.000048084295187
 Sym=      6.1
 Ene=     -11.2162
 Spin= Alpha
 Occup=    2.000000
1 -0.024389489450330
2 -0.000864775918668
3 0.003114079848022
4 -0.000013060392914
5 0.000010171829574
6 -0.000017723595103
7 -0.000307948170121
8 0.000911225991786
9 0.000436468337498
10 0.000022308111816
11 -0.000081628962369
12 0.000059320850553
13 -0.000035285988399
14 -0.000044616103273
15 -0.000006542711524
16 0.18272143253389
17 0.005203929296575
18 -0.008371785972068
19 -0.000163262222081
20 0.000202112728447
21 -0.000007726852812
22 0.002422699174039
23 -0.000926810667379
24 0.000392672996827
25 0.000031788779479
26 0.000255152457743